ITEM: TIMESTEP
1819894831
ITEM: NUMBER OF ATOMS
41
ITEM: BOX BOUNDS pp pp pp
-10.000000 10.000000 
-10.000000 10.000000 
-10.000000 10.000000 
ITEM: ATOMS id mol type q xu yu zu
1 1 1 0.00 -2.500000 -0.500000 0.000000
2 1 1 0.00 -2.438250 -0.559208 0.000000
3 1 1 0.00 -2.373861 -0.615532 0.000000
4 1 1 0.00 -2.306638 -0.668436 0.000000
5 1 1 0.00 -2.236407 -0.717272 0.000000
6 1 1 0.00 -2.163048 -0.761261 0.000000
7 1 1 0.00 -2.086537 -0.799495 0.000000
8 1 1 0.00 -2.007011 -0.830963 0.000000
9 1 1 0.00 -1.924830 -0.854623 0.000000
10 1 1 0.00 -1.840626 -0.869525 0.000000
11 1 1 0.00 -1.755290 -0.874981 0.000000
12 1 1 0.00 -1.669887 -0.870721 0.000000
13 1 1 0.00 -1.585489 -0.856957 0.000000
14 1 1 0.00 -1.503018 -0.834333 0.000000
15 1 1 0.00 -1.423139 -0.803774 0.000000
16 1 1 0.00 -1.346244 -0.766321 0.000000
17 1 1 0.00 -1.272494 -0.722992 0.000000
18 1 1 0.00 -1.201881 -0.674710 0.000000
19 1 1 0.00 -1.134295 -0.622271 0.000000
20 1 1 0.00 -1.069565 -0.566339 0.000000
21 1 1 0.00 -1.007500 -0.507462 0.000000
22 1 1 0.00 -0.916685 -0.424769 0.000000
23 1 1 0.00 -0.826723 -0.357609 0.000000
24 1 1 0.00 -0.731711 -0.297786 0.000000
25 1 1 0.00 -0.632966 -0.244333 0.000000
26 1 1 0.00 -0.531513 -0.196202 0.000000
27 1 1 0.00 -0.428127 -0.152369 0.000000
28 1 1 0.00 -0.323387 -0.111868 0.000000
29 1 1 0.00 -0.217736 -0.073802 0.000000
30 1 1 0.00 -0.111520 -0.037336 0.000000
31 1 1 0.00 -0.005031 -0.001677 0.000000
32 1 1 0.00 0.101470 0.033946 0.000000
33 1 1 0.00 0.207723 0.070302 0.000000
34 1 1 0.00 0.313441 0.108182 0.000000
35 1 1 0.00 0.418284 0.148415 0.000000
36 1 1 0.00 0.521821 0.191894 0.000000
37 1 1 0.00 0.623486 0.239575 0.000000
38 1 1 0.00 0.722526 0.292481 0.000000
39 1 1 0.00 0.817942 0.351659 0.000000
40 1 1 0.00 0.908446 0.418089 0.000000
41 1 1 0.00 0.992463 0.492537 0.000000
ITEM: TIMESTEP
1819894831
ITEM: NUMBER OF ATOMS
41
ITEM: BOX BOUNDS pp pp pp
-10.000000 10.000000 
-10.000000 10.000000 
-10.000000 10.000000 
ITEM: ATOMS id mol type q xu yu zu
1 1 1 0.00 -2.500000 -0.500000 0.000000
2 1 1 0.00 -2.418914 -0.515124 0.001699
3 1 1 0.00 -2.337744 -0.529800 0.003348
4 1 1 0.00 -2.256486 -0.543985 0.004944
5 1 1 0.00 -2.175134 -0.557626 0.006482
6 1 1 0.00 -2.093683 -0.570667 0.007957
7 1 1 0.00 -2.012126 -0.583040 0.009365
8 1 1 0.00 -1.930458 -0.594667 0.010699
9 1 1 0.00 -1.848675 -0.605457 0.011952
10 1 1 0.00 -1.766771 -0.615305 0.013118
11 1 1 0.00 -1.684745 -0.624086 0.014187
12 1 1 0.00 -1.602597 -0.631655 0.015152
13 1 1 0.00 -1.520333 -0.637842 0.016003
14 1 1 0.00 -1.437964 -0.642449 0.016728
15 1 1 0.00 -1.355513 -0.645252 0.017320
16 1 1 0.00 -1.273018 -0.646003 0.017769
17 1 1 0.00 -1.190534 -0.644440 0.018071
18 1 1 0.00 -1.108139 -0.640316 0.018229
19 1 1 0.00 -1.025928 -0.633441 0.018255
20 1 1 0.00 -0.944001 -0.623748 0.018178
21 1 1 0.00 -0.862436 -0.611368 0.018046
22 1 1 0.00 -0.749596 -0.590168 0.017811
23 1 1 0.00 -0.642579 -0.565622 0.017498
24 1 1 0.00 -0.536630 -0.536814 0.017097
25 1 1 0.00 -0.431948 -0.503698 0.016608
26 1 1 0.00 -0.328731 -0.466270 0.016032
27 1 1 0.00 -0.227165 -0.424568 0.015369
28 1 1 0.00 -0.127421 -0.378678 0.014623
29 1 1 0.00 -0.029646 -0.328733 0.013797
30 1 1 0.00 0.066048 -0.274909 0.012895
31 1 1 0.00 0.159588 -0.217422 0.011923
32 1 1 0.00 0.250943 -0.156522 0.010888
33 1 1 0.00 0.340131 -0.092490 0.009796
34 1 1 0.00 0.427214 -0.025624 0.008657
35 1 1 0.00 0.512308 0.043757 0.007477
36 1 1 0.00 0.595573 0.115324 0.006267
37 1 1 0.00 0.677216 0.188736 0.005034
38 1 1 0.00 0.757494 0.263639 0.003791
39 1 1 0.00 0.836709 0.339667 0.002546
40 1 1 0.00 0.915212 0.416430 0.001312
41 1 1 0.00 0.993410 0.493505 0.000101
ITEM: TIMESTEP
1819894831
ITEM: NUMBER OF ATOMS
41
ITEM: BOX BOUNDS pp pp pp
-10.000000 10.000000 
-10.000000 10.000000 
-10.000000 10.000000 
ITEM: ATOMS id mol type q xu yu zu
1 1 1 0.00 -2.500000 -0.500000 0.000000
2 1 1 0.00 -2.418941 -0.515127 0.001699
3 1 1 0.00 -2.337799 -0.529804 0.003347
4 1 1 0.00 -2.256569 -0.543989 0.004943
5 1 1 0.00 -2.175244 -0.557630 0.006480
6 1 1 0.00 -2.093819 -0.570669 0.007955
7 1 1 0.00 -2.012289 -0.583039 0.009362
8 1 1 0.00 -1.930648 -0.594663 0.010696
9 1 1 0.00 -1.848891 -0.605450 0.011949
10 1 1 0.00 -1.767014 -0.615293 0.013115
11 1 1 0.00 -1.685014 -0.624069 0.014184
12 1 1 0.00 -1.602892 -0.631633 0.015149
13 1 1 0.00 -1.520654 -0.637814 0.015999
14 1 1 0.00 -1.438312 -0.642416 0.016725
15 1 1 0.00 -1.355888 -0.645214 0.017317
16 1 1 0.00 -1.273420 -0.645961 0.017766
17 1 1 0.00 -1.190962 -0.644396 0.018069
18 1 1 0.00 -1.108594 -0.640270 0.018227
19 1 1 0.00 -1.026410 -0.633396 0.018253
20 1 1 0.00 -0.944509 -0.623705 0.018176
21 1 1 0.00 -0.862971 -0.611331 0.018044
22 1 1 0.00 -0.750114 -0.590136 0.017809
23 1 1 0.00 -0.643071 -0.565596 0.017496
24 1 1 0.00 -0.537095 -0.536797 0.017095
25 1 1 0.00 -0.432384 -0.503694 0.016607
26 1 1 0.00 -0.329136 -0.466280 0.016031
27 1 1 0.00 -0.227539 -0.424592 0.015369
28 1 1 0.00 -0.127763 -0.378717 0.014623
29 1 1 0.00 -0.029954 -0.328785 0.013797
30 1 1 0.00 0.065774 -0.274973 0.012895
31 1 1 0.00 0.159348 -0.217496 0.011924
32 1 1 0.00 0.250737 -0.156604 0.010889
33 1 1 0.00 0.339956 -0.092575 0.009798
34 1 1 0.00 0.427070 -0.025710 0.008658
35 1 1 0.00 0.512192 0.043674 0.007479
36 1 1 0.00 0.595482 0.115247 0.006268
37 1 1 0.00 0.677149 0.188668 0.005036
38 1 1 0.00 0.757448 0.263584 0.003792
39 1 1 0.00 0.836680 0.339628 0.002547
40 1 1 0.00 0.915199 0.416408 0.001312
41 1 1 0.00 0.993410 0.493504 0.000101
ITEM: TIMESTEP
1819894831
ITEM: NUMBER OF ATOMS
41
ITEM: BOX BOUNDS pp pp pp
-10.000000 10.000000 
-10.000000 10.000000 
-10.000000 10.000000 
ITEM: ATOMS id mol type q xu yu zu
1 1 1 0.00 -2.500000 -0.500000 0.000000
2 1 1 0.00 -2.418985 -0.515130 0.001698
3 1 1 0.00 -2.337886 -0.529810 0.003346
4 1 1 0.00 -2.256699 -0.543995 0.004940
5 1 1 0.00 -2.175416 -0.557635 0.006477
6 1 1 0.00 -2.094034 -0.570671 0.007952
7 1 1 0.00 -2.012546 -0.583038 0.009358
8 1 1 0.00 -1.930947 -0.594657 0.010691
9 1 1 0.00 -1.849232 -0.605437 0.011944
10 1 1 0.00 -1.767396 -0.615273 0.013110
11 1 1 0.00 -1.685438 -0.624041 0.014179
12 1 1 0.00 -1.603359 -0.631596 0.015144
13 1 1 0.00 -1.521162 -0.637768 0.015994
14 1 1 0.00 -1.438862 -0.642362 0.016720
15 1 1 0.00 -1.356480 -0.645153 0.017312
16 1 1 0.00 -1.274054 -0.645895 0.017762
17 1 1 0.00 -1.191639 -0.644325 0.018065
18 1 1 0.00 -1.109313 -0.640198 0.018223
19 1 1 0.00 -1.027171 -0.633325 0.018250
20 1 1 0.00 -0.945313 -0.623639 0.018173
21 1 1 0.00 -0.863816 -0.611274 0.018041
22 1 1 0.00 -0.750932 -0.590085 0.017805
23 1 1 0.00 -0.643848 -0.565555 0.017493
24 1 1 0.00 -0.537829 -0.536772 0.017093
25 1 1 0.00 -0.433073 -0.503688 0.016605
26 1 1 0.00 -0.329778 -0.466295 0.016029
27 1 1 0.00 -0.228130 -0.424630 0.015368
28 1 1 0.00 -0.128303 -0.378778 0.014623
29 1 1 0.00 -0.030441 -0.328868 0.013797
30 1 1 0.00 0.065341 -0.275075 0.012896
31 1 1 0.00 0.158968 -0.217613 0.011925
32 1 1 0.00 0.250409 -0.156732 0.010891
33 1 1 0.00 0.339679 -0.092709 0.009800
34 1 1 0.00 0.426841 -0.025845 0.008660
35 1 1 0.00 0.512007 0.043544 0.007481
36 1 1 0.00 0.595338 0.115127 0.006270
37 1 1 0.00 0.677042 0.188563 0.005038
38 1 1 0.00 0.757373 0.263498 0.003794
39 1 1 0.00 0.836634 0.339566 0.002548
40 1 1 0.00 0.915178 0.416375 0.001313
41 1 1 0.00 0.993409 0.493502 0.000101
ITEM: TIMESTEP
1819894831
ITEM: NUMBER OF ATOMS
41
ITEM: BOX BOUNDS pp pp pp
-10.000000 10.000000 
-10.000000 10.000000 
-10.000000 10.000000 
ITEM: ATOMS id mol type q xu yu zu
1 1 1 0.00 -2.500000 -0.500000 0.000000
2 1 1 0.00 -2.419043 -0.515134 0.001697
3 1 1 0.00 -2.338002 -0.529816 0.003344
4 1 1 0.00 -2.256871 -0.544002 0.004937
5 1 1 0.00 -2.175646 -0.557640 0.006473
6 1 1 0.00 -2.094320 -0.570674 0.007947
7 1 1 0.00 -2.012888 -0.583035 0.009353
8 1 1 0.00 -1.931345 -0.594647 0.010685
9 1 1 0.00 -1.849686 -0.605419 0.011938
10 1 1 0.00 -1.767906 -0.615245 0.013103
11 1 1 0.00 -1.686003 -0.624003 0.014172
12 1 1 0.00 -1.603979 -0.631546 0.015137
13 1 1 0.00 -1.521838 -0.637708 0.015987
14 1 1 0.00 -1.439594 -0.642291 0.016714
15 1 1 0.00 -1.357268 -0.645072 0.017306
16 1 1 0.00 -1.274898 -0.645806 0.017757
17 1 1 0.00 -1.192539 -0.644232 0.018060
18 1 1 0.00 -1.110270 -0.640103 0.018219
19 1 1 0.00 -1.028184 -0.633231 0.018245
20 1 1 0.00 -0.946382 -0.623552 0.018168
21 1 1 0.00 -0.864940 -0.611199 0.018036
22 1 1 0.00 -0.752020 -0.590019 0.017801
23 1 1 0.00 -0.644882 -0.565503 0.017489
24 1 1 0.00 -0.538806 -0.536740 0.017089
25 1 1 0.00 -0.433990 -0.503680 0.016602
26 1 1 0.00 -0.330631 -0.466316 0.016027
27 1 1 0.00 -0.228918 -0.424682 0.015367
28 1 1 0.00 -0.129021 -0.378860 0.014622
29 1 1 0.00 -0.031089 -0.328978 0.013798
30 1 1 0.00 0.064764 -0.275210 0.012897
31 1 1 0.00 0.158462 -0.217769 0.011927
32 1 1 0.00 0.249973 -0.156902 0.010893
33 1 1 0.00 0.339309 -0.092888 0.009803
34 1 1 0.00 0.426535 -0.026024 0.008663
35 1 1 0.00 0.511760 0.043371 0.007484
36 1 1 0.00 0.595146 0.114967 0.006273
37 1 1 0.00 0.676899 0.188423 0.005041
38 1 1 0.00 0.757274 0.263385 0.003796
39 1 1 0.00 0.836573 0.339484 0.002550
40 1 1 0.00 0.915150 0.416331 0.001314
41 1 1 0.00 0.993409 0.493501 0.000101
ITEM: TIMESTEP
1819894831
ITEM: NUMBER OF ATOMS
41
ITEM: BOX BOUNDS pp pp pp
-10.000000 10.000000 
-10.000000 10.000000 
-10.000000 10.000000 
ITEM: ATOMS id mol type q xu yu zu
1 1 1 0.00 -2.500000 -0.500000 0.000000
2 1 1 0.00 -2.419114 -0.515139 0.001695
3 1 1 0.00 -2.338144 -0.529824 0.003341
4 1 1 0.00 -2.257083 -0.544009 0.004934
5 1 1 0.00 -2.175928 -0.557646 0.006468
6 1 1 0.00 -2.094671 -0.570675 0.007941
7 1 1 0.00 -2.013308 -0.583030 0.009346
8 1 1 0.00 -1.931833 -0.594633 0.010678
9 1 1 0.00 -1.850242 -0.605395 0.011930
10 1 1 0.00 -1.768530 -0.615209 0.013094
11 1 1 0.00 -1.686696 -0.623954 0.014163
12 1 1 0.00 -1.604740 -0.631484 0.015128
13 1 1 0.00 -1.522667 -0.637632 0.015979
14 1 1 0.00 -1.440491 -0.642202 0.016706
15 1 1 0.00 -1.358234 -0.644973 0.017299
16 1 1 0.00 -1.275933 -0.645697 0.017750
17 1 1 0.00 -1.193644 -0.644118 0.018054
18 1 1 0.00 -1.111443 -0.639987 0.018213
19 1 1 0.00 -1.029426 -0.633118 0.018240
20 1 1 0.00 -0.947693 -0.623446 0.018163
21 1 1 0.00 -0.866318 -0.611108 0.018031
22 1 1 0.00 -0.753355 -0.589940 0.017796
23 1 1 0.00 -0.646150 -0.565440 0.017484
24 1 1 0.00 -0.540004 -0.536701 0.017085
25 1 1 0.00 -0.435114 -0.503672 0.016599
26 1 1 0.00 -0.331678 -0.466343 0.016025
27 1 1 0.00 -0.229883 -0.424745 0.015365
28 1 1 0.00 -0.129903 -0.378960 0.014622
29 1 1 0.00 -0.031884 -0.329113 0.013798
30 1 1 0.00 0.064056 -0.275376 0.012899
31 1 1 0.00 0.157841 -0.217959 0.011929
32 1 1 0.00 0.249436 -0.157110 0.010896
33 1 1 0.00 0.338855 -0.093105 0.009806
34 1 1 0.00 0.426158 -0.026243 0.008667
35 1 1 0.00 0.511457 0.043160 0.007488
36 1 1 0.00 0.594909 0.114772 0.006277
37 1 1 0.00 0.676722 0.188252 0.005044
38 1 1 0.00 0.757150 0.263246 0.003799
39 1 1 0.00 0.836497 0.339385 0.002552
40 1 1 0.00 0.915114 0.416277 0.001315
41 1 1 0.00 0.993409 0.493498 0.000101
ITEM: TIMESTEP
1819894831
ITEM: NUMBER OF ATOMS
41
ITEM: BOX BOUNDS pp pp pp
-10.000000 10.000000 
-10.000000 10.000000 
-10.000000 10.000000 
ITEM: ATOMS id mol type q xu yu zu
1 1 1 0.00 -2.500000 -0.500000 0.000000
2 1 1 0.00 -2.419197 -0.515145 0.001694
3 1 1 0.00 -2.338309 -0.529832 0.003338
4 1 1 0.00 -2.257331 -0.544017 0.004929
5 1 1 0.00 -2.176257 -0.557650 0.006463
6 1 1 0.00 -2.095081 -0.570674 0.007934
7 1 1 0.00 -2.013799 -0.583021 0.009338
8 1 1 0.00 -1.932404 -0.594615 0.010669
9 1 1 0.00 -1.850893 -0.605364 0.011920
10 1 1 0.00 -1.769261 -0.615165 0.013084
11 1 1 0.00 -1.687506 -0.623895 0.014153
12 1 1 0.00 -1.605629 -0.631410 0.015118
13 1 1 0.00 -1.523637 -0.637542 0.015969
14 1 1 0.00 -1.441541 -0.642098 0.016696
15 1 1 0.00 -1.359364 -0.644856 0.017290
16 1 1 0.00 -1.277144 -0.645571 0.017741
17 1 1 0.00 -1.194935 -0.643985 0.018046
18 1 1 0.00 -1.112816 -0.639854 0.018206
19 1 1 0.00 -1.030880 -0.632988 0.018233
20 1 1 0.00 -0.949226 -0.623326 0.018157
21 1 1 0.00 -0.867931 -0.611005 0.018025
22 1 1 0.00 -0.754916 -0.589850 0.017790
23 1 1 0.00 -0.647633 -0.565369 0.017479
24 1 1 0.00 -0.541405 -0.536659 0.017080
25 1 1 0.00 -0.436430 -0.503665 0.016595
26 1 1 0.00 -0.332903 -0.466376 0.016022
27 1 1 0.00 -0.231013 -0.424821 0.015363
28 1 1 0.00 -0.130934 -0.379079 0.014621
29 1 1 0.00 -0.032815 -0.329272 0.013799
30 1 1 0.00 0.063227 -0.275569 0.012900
31 1 1 0.00 0.157113 -0.218181 0.011932
32 1 1 0.00 0.248808 -0.157353 0.010899
33 1 1 0.00 0.338322 -0.093359 0.009810
34 1 1 0.00 0.425716 -0.026498 0.008671
35 1 1 0.00 0.511100 0.042914 0.007492
36 1 1 0.00 0.594630 0.114545 0.006281
37 1 1 0.00 0.676513 0.188054 0.005048
38 1 1 0.00 0.757005 0.263085 0.003802
39 1 1 0.00 0.836407 0.339270 0.002554
40 1 1 0.00 0.915072 0.416215 0.001316
41 1 1 0.00 0.993409 0.493496 0.000101
ITEM: TIMESTEP
1819894831
ITEM: NUMBER OF ATOMS
41
ITEM: BOX BOUNDS pp pp pp
-10.000000 10.000000 
-10.000000 10.000000 
-10.000000 10.000000 
ITEM: ATOMS id mol type q xu yu zu
1 1 1 0.00 -2.500000 -0.500000 0.000000
2 1 1 0.00 -2.419292 -0.515150 0.001692
3 1 1 0.00 -2.338497 -0.529839 0.003335
4 1 1 0.00 -2.257612 -0.544024 0.004924
5 1 1 0.00 -2.176630 -0.557654 0.006456
6 1 1 0.00 -2.095546 -0.570671 0.007926
7 1 1 0.00 -2.014355 -0.583009 0.009329
8 1 1 0.00 -1.933051 -0.594591 0.010659
9 1 1 0.00 -1.851631 -0.605328 0.011910
10 1 1 0.00 -1.770089 -0.615113 0.013073
11 1 1 0.00 -1.688425 -0.623827 0.014142
12 1 1 0.00 -1.606639 -0.631324 0.015106
13 1 1 0.00 -1.524737 -0.637440 0.015957
14 1 1 0.00 -1.442732 -0.641980 0.016685
15 1 1 0.00 -1.360646 -0.644725 0.017279
16 1 1 0.00 -1.278517 -0.645429 0.017732
17 1 1 0.00 -1.196401 -0.643837 0.018038
18 1 1 0.00 -1.114373 -0.639705 0.018198
19 1 1 0.00 -1.032529 -0.632844 0.018226
20 1 1 0.00 -0.950967 -0.623192 0.018150
21 1 1 0.00 -0.869761 -0.610892 0.018018
22 1 1 0.00 -0.756687 -0.589751 0.017783
23 1 1 0.00 -0.649316 -0.565292 0.017472
24 1 1 0.00 -0.542996 -0.536613 0.017075
25 1 1 0.00 -0.437922 -0.503660 0.016591
26 1 1 0.00 -0.334292 -0.466415 0.016019
27 1 1 0.00 -0.232296 -0.424909 0.015362
28 1 1 0.00 -0.132106 -0.379214 0.014621
29 1 1 0.00 -0.033873 -0.329452 0.013799
30 1 1 0.00 0.062285 -0.275789 0.012902
31 1 1 0.00 0.156286 -0.218433 0.011935
32 1 1 0.00 0.248093 -0.157627 0.010903
33 1 1 0.00 0.337716 -0.093645 0.009814
34 1 1 0.00 0.425213 -0.026785 0.008676
35 1 1 0.00 0.510693 0.042637 0.007497
36 1 1 0.00 0.594311 0.114289 0.006286
37 1 1 0.00 0.676275 0.187830 0.005052
38 1 1 0.00 0.756838 0.262904 0.003806
39 1 1 0.00 0.836303 0.339140 0.002557
40 1 1 0.00 0.915024 0.416145 0.001318
41 1 1 0.00 0.993408 0.493493 0.000101
ITEM: TIMESTEP
1819894831
ITEM: NUMBER OF ATOMS
41
ITEM: BOX BOUNDS pp pp pp
-10.000000 10.000000 
-10.000000 10.000000 
-10.000000 10.000000 
ITEM: ATOMS id mol type q xu yu zu
1 1 1 0.00 -2.500000 -0.500000 0.000000
2 1 1 0.00 -2.419396 -0.515155 0.001690
3 1 1 0.00 -2.338706 -0.529846 0.003331
4 1 1 0.00 -2.257923 -0.544029 0.004918
5 1 1 0.00 -2.177044 -0.557655 0.006449
6 1 1 0.00 -2.096062 -0.570665 0.007918
7 1 1 0.00 -2.014973 -0.582993 0.009319
8 1 1 0.00 -1.933770 -0.594563 0.010648
9 1 1 0.00 -1.852451 -0.605284 0.011898
10 1 1 0.00 -1.771010 -0.615053 0.013060
11 1 1 0.00 -1.689446 -0.623749 0.014129
12 1 1 0.00 -1.607761 -0.631228 0.015093
13 1 1 0.00 -1.525959 -0.637325 0.015945
14 1 1 0.00 -1.444055 -0.641849 0.016673
15 1 1 0.00 -1.362071 -0.644579 0.017268
16 1 1 0.00 -1.280044 -0.645273 0.017722
17 1 1 0.00 -1.198030 -0.643676 0.018029
18 1 1 0.00 -1.116104 -0.639542 0.018190
19 1 1 0.00 -1.034362 -0.632687 0.018218
20 1 1 0.00 -0.952900 -0.623049 0.018142
21 1 1 0.00 -0.871794 -0.610770 0.018010
22 1 1 0.00 -0.758655 -0.589646 0.017776
23 1 1 0.00 -0.651186 -0.565211 0.017466
24 1 1 0.00 -0.544763 -0.536567 0.017069
25 1 1 0.00 -0.439581 -0.503657 0.016586
26 1 1 0.00 -0.335837 -0.466462 0.016015
27 1 1 0.00 -0.233721 -0.425008 0.015359
28 1 1 0.00 -0.133408 -0.379365 0.014620
29 1 1 0.00 -0.035049 -0.329653 0.013800
30 1 1 0.00 0.061236 -0.276034 0.012904
31 1 1 0.00 0.155364 -0.218713 0.011938
32 1 1 0.00 0.247297 -0.157931 0.010907
33 1 1 0.00 0.337040 -0.093963 0.009819
34 1 1 0.00 0.424652 -0.027104 0.008682
35 1 1 0.00 0.510238 0.042330 0.007503
36 1 1 0.00 0.593955 0.114007 0.006292
37 1 1 0.00 0.676009 0.187583 0.005057
38 1 1 0.00 0.756651 0.262704 0.003810
39 1 1 0.00 0.836187 0.338997 0.002560
40 1 1 0.00 0.914970 0.416068 0.001320
41 1 1 0.00 0.993408 0.493490 0.000101
ITEM: TIMESTEP
1819894831
ITEM: NUMBER OF ATOMS
41
ITEM: BOX BOUNDS pp pp pp
-10.000000 10.000000 
-10.000000 10.000000 
-10.000000 10.000000 
ITEM: ATOMS id mol type q xu yu zu
1 1 1 0.00 -2.500000 -0.500000 0.000000
2 1 1 0.00 -2.419511 -0.515159 0.001688
3 1 1 0.00 -2.338934 -0.529852 0.003326
4 1 1 0.00 -2.258264 -0.544033 0.004912
5 1 1 0.00 -2.177497 -0.557654 0.006441
6 1 1 0.00 -2.096627 -0.570655 0.007908
7 1 1 0.00 -2.015649 -0.582972 0.009308
8 1 1 0.00 -1.934557 -0.594528 0.010636
9 1 1 0.00 -1.853348 -0.605233 0.011884
10 1 1 0.00 -1.772017 -0.614985 0.013046
11 1 1 0.00 -1.690564 -0.623661 0.014114
12 1 1 0.00 -1.608989 -0.631121 0.015079
13 1 1 0.00 -1.527298 -0.637199 0.015931
14 1 1 0.00 -1.445505 -0.641705 0.016659
15 1 1 0.00 -1.363632 -0.644421 0.017256
16 1 1 0.00 -1.281716 -0.645104 0.017710
17 1 1 0.00 -1.199814 -0.643501 0.018018
18 1 1 0.00 -1.118000 -0.639369 0.018181
19 1 1 0.00 -1.036369 -0.632521 0.018210
20 1 1 0.00 -0.955018 -0.622897 0.018133
21 1 1 0.00 -0.874021 -0.610643 0.018002
22 1 1 0.00 -0.760810 -0.589537 0.017768
23 1 1 0.00 -0.653234 -0.565127 0.017458
24 1 1 0.00 -0.546697 -0.536521 0.017063
25 1 1 0.00 -0.441397 -0.503658 0.016581
26 1 1 0.00 -0.337529 -0.466516 0.016012
27 1 1 0.00 -0.235283 -0.425119 0.015357
28 1 1 0.00 -0.134835 -0.379533 0.014619
29 1 1 0.00 -0.036338 -0.329874 0.013801
30 1 1 0.00 0.060087 -0.276302 0.012907
31 1 1 0.00 0.154354 -0.219018 0.011941
32 1 1 0.00 0.246423 -0.158264 0.010912
33 1 1 0.00 0.336298 -0.094310 0.009825
34 1 1 0.00 0.424035 -0.027451 0.008687
35 1 1 0.00 0.509738 0.041995 0.007509
36 1 1 0.00 0.593563 0.113699 0.006297
37 1 1 0.00 0.675714 0.187315 0.005063
38 1 1 0.00 0.756445 0.262487 0.003815
39 1 1 0.00 0.836059 0.338841 0.002564
40 1 1 0.00 0.914910 0.415984 0.001322
41 1 1 0.00 0.993407 0.493487 0.000101
ITEM: TIMESTEP
1819894831
ITEM: NUMBER OF ATOMS
41
ITEM: BOX BOUNDS pp pp pp
-10.000000 10.000000 
-10.000000 10.000000 
-10.000000 10.000000 
ITEM: ATOMS id mol type q xu yu zu
1 1 1 0.00 -2.500000 -0.500000 0.000000
2 1 1 0.00 -2.419634 -0.515164 0.001685
3 1 1 0.00 -2.339181 -0.529857 0.003322
4 1 1 0.00 -2.258633 -0.544035 0.004905
5 1 1 0.00 -2.177988 -0.557649 0.006432
6 1 1 0.00 -2.097239 -0.570642 0.007897
7 1 1 0.00 -2.016381 -0.582947 0.009296
8 1 1 0.00 -1.935409 -0.594487 0.010622
9 1 1 0.00 -1.854319 -0.605175 0.011870
10 1 1 0.00 -1.773108 -0.614907 0.013031
11 1 1 0.00 -1.691774 -0.623564 0.014099
12 1 1 0.00 -1.610318 -0.631003 0.015063
13 1 1 0.00 -1.528748 -0.637062 0.015915
14 1 1 0.00 -1.447074 -0.641550 0.016645
15 1 1 0.00 -1.365322 -0.644251 0.017242
16 1 1 0.00 -1.283527 -0.644924 0.017698
17 1 1 0.00 -1.201746 -0.643317 0.018007
18 1 1 0.00 -1.120053 -0.639186 0.018171
19 1 1 0.00 -1.038542 -0.632347 0.018200
20 1 1 0.00 -0.957311 -0.622739 0.018124
21 1 1 0.00 -0.876432 -0.610512 0.017993
22 1 1 0.00 -0.763144 -0.589425 0.017759
23 1 1 0.00 -0.655451 -0.565043 0.017450
24 1 1 0.00 -0.548792 -0.536476 0.017056
25 1 1 0.00 -0.443364 -0.503663 0.016575
26 1 1 0.00 -0.339361 -0.466579 0.016008
27 1 1 0.00 -0.236975 -0.425242 0.015355
28 1 1 0.00 -0.136381 -0.379717 0.014618
29 1 1 0.00 -0.037735 -0.330115 0.013802
30 1 1 0.00 0.058840 -0.276592 0.012909
31 1 1 0.00 0.153258 -0.219349 0.011945
32 1 1 0.00 0.245474 -0.158624 0.010917
33 1 1 0.00 0.335492 -0.094684 0.009830
34 1 1 0.00 0.423364 -0.027826 0.008694
35 1 1 0.00 0.509195 0.041635 0.007515
36 1 1 0.00 0.593136 0.113367 0.006304
37 1 1 0.00 0.675394 0.187025 0.005068
38 1 1 0.00 0.756220 0.262252 0.003819
39 1 1 0.00 0.835918 0.338674 0.002567
40 1 1 0.00 0.914844 0.415894 0.001324
41 1 1 0.00 0.993407 0.493484 0.000101
ITEM: TIMESTEP
1819894831
ITEM: NUMBER OF ATOMS
41
ITEM: BOX BOUNDS pp pp pp
-10.000000 10.000000 
-10.000000 10.000000 
-10.000000 10.000000 
ITEM: ATOMS id mol type q xu yu zu
1 1 1 0.00 -2.500000 -0.500000 0.000000
2 1 1 0.00 -2.419767 -0.515167 0.001683
3 1 1 0.00 -2.339445 -0.529860 0.003317
4 1 1 0.00 -2.259029 -0.544035 0.004898
5 1 1 0.00 -2.178514 -0.557642 0.006422
6 1 1 0.00 -2.097895 -0.570624 0.007886
7 1 1 0.00 -2.017166 -0.582915 0.009283
8 1 1 0.00 -1.936323 -0.594440 0.010608
9 1 1 0.00 -1.855362 -0.605110 0.011854
10 1 1 0.00 -1.774279 -0.614822 0.013015
11 1 1 0.00 -1.693074 -0.623457 0.014082
12 1 1 0.00 -1.611747 -0.630875 0.015046
13 1 1 0.00 -1.530305 -0.636914 0.015899
14 1 1 0.00 -1.448760 -0.641384 0.016629
15 1 1 0.00 -1.367137 -0.644070 0.017227
16 1 1 0.00 -1.285473 -0.644734 0.017685
17 1 1 0.00 -1.203821 -0.643123 0.017995
18 1 1 0.00 -1.122258 -0.638996 0.018160
19 1 1 0.00 -1.040876 -0.632167 0.018191
20 1 1 0.00 -0.959774 -0.622577 0.018115
21 1 1 0.00 -0.879022 -0.610379 0.017983
22 1 1 0.00 -0.765650 -0.589312 0.017750
23 1 1 0.00 -0.657832 -0.564959 0.017442
24 1 1 0.00 -0.551043 -0.536435 0.017049
25 1 1 0.00 -0.445476 -0.503675 0.016569
26 1 1 0.00 -0.341329 -0.466651 0.016003
27 1 1 0.00 -0.238792 -0.425378 0.015352
28 1 1 0.00 -0.138043 -0.379917 0.014618
29 1 1 0.00 -0.039237 -0.330375 0.013803
30 1 1 0.00 0.057500 -0.276905 0.012912
31 1 1 0.00 0.152078 -0.219705 0.011949
32 1 1 0.00 0.244453 -0.159009 0.010922
33 1 1 0.00 0.334623 -0.095085 0.009836
34 1 1 0.00 0.422641 -0.028228 0.008700
35 1 1 0.00 0.508608 0.041249 0.007522
36 1 1 0.00 0.592675 0.113012 0.006310
37 1 1 0.00 0.675047 0.186716 0.005074
38 1 1 0.00 0.755975 0.262003 0.003824
39 1 1 0.00 0.835765 0.338496 0.002571
40 1 1 0.00 0.914772 0.415799 0.001326
41 1 1 0.00 0.993406 0.493481 0.000101
ITEM: TIMESTEP
1819894831
ITEM: NUMBER OF ATOMS
41
ITEM: BOX BOUNDS pp pp pp
-10.000000 10.000000 
-10.000000 10.000000 
-10.000000 10.000000 
ITEM: ATOMS id mol type q xu yu zu
1 1 1 0.00 -2.500000 -0.500000 0.000000
2 1 1 0.00 -2.419909 -0.515169 0.001680
3 1 1 0.00 -2.339727 -0.529861 0.003311
4 1 1 0.00 -2.259451 -0.544031 0.004890
5 1 1 0.00 -2.179076 -0.557630 0.006412
6 1 1 0.00 -2.098595 -0.570601 0.007874
7 1 1 0.00 -2.018004 -0.582878 0.009269
8 1 1 0.00 -1.937299 -0.594385 0.010592
9 1 1 0.00 -1.856475 -0.605036 0.011837
10 1 1 0.00 -1.775529 -0.614727 0.012997
11 1 1 0.00 -1.694461 -0.623341 0.014064
12 1 1 0.00 -1.613271 -0.630737 0.015028
13 1 1 0.00 -1.531966 -0.636755 0.015881
14 1 1 0.00 -1.450560 -0.641207 0.016612
15 1 1 0.00 -1.369076 -0.643880 0.017212
16 1 1 0.00 -1.287549 -0.644535 0.017671
17 1 1 0.00 -1.206036 -0.642922 0.017983
18 1 1 0.00 -1.124612 -0.638799 0.018149
19 1 1 0.00 -1.043368 -0.631983 0.018180
20 1 1 0.00 -0.962403 -0.622412 0.018105
21 1 1 0.00 -0.881787 -0.610245 0.017973
22 1 1 0.00 -0.768326 -0.589200 0.017741
23 1 1 0.00 -0.660374 -0.564877 0.017433
24 1 1 0.00 -0.553445 -0.536398 0.017041
25 1 1 0.00 -0.447731 -0.503693 0.016563
26 1 1 0.00 -0.343431 -0.466733 0.015999
27 1 1 0.00 -0.240733 -0.425527 0.015350
28 1 1 0.00 -0.139818 -0.380133 0.014617
29 1 1 0.00 -0.040842 -0.330654 0.013804
30 1 1 0.00 0.056067 -0.277240 0.012914
31 1 1 0.00 0.150817 -0.220085 0.011954
32 1 1 0.00 0.243360 -0.159420 0.010927
33 1 1 0.00 0.333693 -0.095513 0.009843
34 1 1 0.00 0.421866 -0.028655 0.008707
35 1 1 0.00 0.507978 0.040838 0.007529
36 1 1 0.00 0.592180 0.112635 0.006317
37 1 1 0.00 0.674674 0.186388 0.005081
38 1 1 0.00 0.755712 0.261737 0.003830
39 1 1 0.00 0.835600 0.338307 0.002575
40 1 1 0.00 0.914694 0.415698 0.001328
41 1 1 0.00 0.993406 0.493478 0.000101
ITEM: TIMESTEP
1819894831
ITEM: NUMBER OF ATOMS
41
ITEM: BOX BOUNDS pp pp pp
-10.000000 10.000000 
-10.000000 10.000000 
-10.000000 10.000000 
ITEM: ATOMS id mol type q xu yu zu
1 1 1 0.00 -2.500000 -0.500000 0.000000
2 1 1 0.00 -2.420059 -0.515171 0.001677
3 1 1 0.00 -2.340027 -0.529860 0.003305
4 1 1 0.00 -2.259899 -0.544024 0.004881
5 1 1 0.00 -2.179671 -0.557614 0.006401
6 1 1 0.00 -2.099338 -0.570573 0.007860
7 1 1 0.00 -2.018894 -0.582834 0.009254
8 1 1 0.00 -1.938335 -0.594324 0.010575
9 1 1 0.00 -1.857657 -0.604954 0.011819
10 1 1 0.00 -1.776857 -0.614624 0.012978
11 1 1 0.00 -1.695934 -0.623215 0.014045
12 1 1 0.00 -1.614890 -0.630590 0.015009
13 1 1 0.00 -1.533732 -0.636587 0.015862
14 1 1 0.00 -1.452472 -0.641021 0.016594
15 1 1 0.00 -1.371135 -0.643680 0.017195
16 1 1 0.00 -1.289756 -0.644328 0.017656
17 1 1 0.00 -1.208390 -0.642714 0.017970
18 1 1 0.00 -1.127112 -0.638598 0.018137
19 1 1 0.00 -1.046016 -0.631796 0.018169
20 1 1 0.00 -0.965197 -0.622247 0.018094
21 1 1 0.00 -0.884724 -0.610113 0.017963
22 1 1 0.00 -0.771168 -0.589091 0.017731
23 1 1 0.00 -0.663074 -0.564799 0.017424
24 1 1 0.00 -0.555996 -0.536366 0.017033
25 1 1 0.00 -0.450127 -0.503719 0.016557
26 1 1 0.00 -0.345663 -0.466825 0.015994
27 1 1 0.00 -0.242796 -0.425690 0.015347
28 1 1 0.00 -0.141705 -0.380366 0.014616
29 1 1 0.00 -0.042549 -0.330953 0.013805
30 1 1 0.00 0.054542 -0.277598 0.012917
31 1 1 0.00 0.149474 -0.220489 0.011958
32 1 1 0.00 0.242196 -0.159857 0.010933
33 1 1 0.00 0.332702 -0.095966 0.009849
34 1 1 0.00 0.421040 -0.029107 0.008715
35 1 1 0.00 0.507306 0.040404 0.007537
36 1 1 0.00 0.591651 0.112236 0.006324
37 1 1 0.00 0.674275 0.186041 0.005087
38 1 1 0.00 0.755431 0.261457 0.003835
39 1 1 0.00 0.835424 0.338108 0.002579
40 1 1 0.00 0.914611 0.415592 0.001330
41 1 1 0.00 0.993405 0.493475 0.000102
ITEM: TIMESTEP
1819894831
ITEM: NUMBER OF ATOMS
41
ITEM: BOX BOUNDS pp pp pp
-10.000000 10.000000 
-10.000000 10.000000 
-10.000000 10.000000 
ITEM: ATOMS id mol type q xu yu zu
1 1 1 0.00 -2.500000 -0.500000 0.000000
2 1 1 0.00 -2.420218 -0.515171 0.001674
3 1 1 0.00 -2.340344 -0.529857 0.003299
4 1 1 0.00 -2.260373 -0.544014 0.004872
5 1 1 0.00 -2.180302 -0.557594 0.006390
6 1 1 0.00 -2.100124 -0.570538 0.007846
7 1 1 0.00 -2.019835 -0.582783 0.009238
8 1 1 0.00 -1.939431 -0.594254 0.010558
9 1 1 0.00 -1.858908 -0.604864 0.011800
10 1 1 0.00 -1.778262 -0.614511 0.012958
11 1 1 0.00 -1.697494 -0.623080 0.014024
12 1 1 0.00 -1.616604 -0.630432 0.014989
13 1 1 0.00 -1.535601 -0.636409 0.015842
14 1 1 0.00 -1.454497 -0.640826 0.016575
15 1 1 0.00 -1.373314 -0.643473 0.017177
16 1 1 0.00 -1.292091 -0.644114 0.017640
17 1 1 0.00 -1.210882 -0.642501 0.017955
18 1 1 0.00 -1.129760 -0.638394 0.018125
19 1 1 0.00 -1.048818 -0.631607 0.018158
20 1 1 0.00 -0.968153 -0.622083 0.018083
21 1 1 0.00 -0.887833 -0.609985 0.017952
22 1 1 0.00 -0.774177 -0.588985 0.017721
23 1 1 0.00 -0.665932 -0.564726 0.017415
24 1 1 0.00 -0.558697 -0.536341 0.017025
25 1 1 0.00 -0.452663 -0.503755 0.016550
26 1 1 0.00 -0.348027 -0.466929 0.015989
27 1 1 0.00 -0.244980 -0.425867 0.015344
28 1 1 0.00 -0.143704 -0.380616 0.014615
29 1 1 0.00 -0.044357 -0.331272 0.013806
30 1 1 0.00 0.052926 -0.277977 0.012920
31 1 1 0.00 0.148050 -0.220917 0.011963
32 1 1 0.00 0.240961 -0.160319 0.010939
33 1 1 0.00 0.331650 -0.096445 0.009857
34 1 1 0.00 0.420162 -0.029585 0.008722
35 1 1 0.00 0.506592 0.039945 0.007544
36 1 1 0.00 0.591087 0.111815 0.006332
37 1 1 0.00 0.673849 0.185675 0.005094
38 1 1 0.00 0.755130 0.261163 0.003841
39 1 1 0.00 0.835234 0.337898 0.002584
40 1 1 0.00 0.914521 0.415480 0.001333
41 1 1 0.00 0.993405 0.493472 0.000102
ITEM: TIMESTEP
1819894831
ITEM: NUMBER OF ATOMS
41
ITEM: BOX BOUNDS pp pp pp
-10.000000 10.000000 
-10.000000 10.000000 
-10.000000 10.000000 
ITEM: ATOMS id mol type q xu yu zu
1 1 1 0.00 -2.500000 -0.500000 0.000000
2 1 1 0.00 -2.420385 -0.515170 0.001670
3 1 1 0.00 -2.340678 -0.529851 0.003292
4 1 1 0.00 -2.260873 -0.544000 0.004863
5 1 1 0.00 -2.180966 -0.557568 0.006377
6 1 1 0.00 -2.100953 -0.570498 0.007832
7 1 1 0.00 -2.020828 -0.582726 0.009221
8 1 1 0.00 -1.940588 -0.594176 0.010539
9 1 1 0.00 -1.860227 -0.604764 0.011780
10 1 1 0.00 -1.779745 -0.614389 0.012937
11 1 1 0.00 -1.699140 -0.622935 0.014002
12 1 1 0.00 -1.618414 -0.630265 0.014967
13 1 1 0.00 -1.537574 -0.636222 0.015821
14 1 1 0.00 -1.456634 -0.640622 0.016555
15 1 1 0.00 -1.375616 -0.643258 0.017159
16 1 1 0.00 -1.294557 -0.643894 0.017623
17 1 1 0.00 -1.213512 -0.642284 0.017941
18 1 1 0.00 -1.132555 -0.638188 0.018112
19 1 1 0.00 -1.051777 -0.631420 0.018146
20 1 1 0.00 -0.971275 -0.621921 0.018072
21 1 1 0.00 -0.891116 -0.609860 0.017941
22 1 1 0.00 -0.777353 -0.588885 0.017710
23 1 1 0.00 -0.668949 -0.564660 0.017405
24 1 1 0.00 -0.561548 -0.536324 0.017017
25 1 1 0.00 -0.455341 -0.503800 0.016543
26 1 1 0.00 -0.350523 -0.467045 0.015985
27 1 1 0.00 -0.247287 -0.426059 0.015341
28 1 1 0.00 -0.145815 -0.380884 0.014615
29 1 1 0.00 -0.046268 -0.331612 0.013808
30 1 1 0.00 0.051218 -0.278379 0.012924
31 1 1 0.00 0.146544 -0.221370 0.011968
32 1 1 0.00 0.239654 -0.160806 0.010946
33 1 1 0.00 0.330536 -0.096950 0.009864
34 1 1 0.00 0.419231 -0.030089 0.008730
35 1 1 0.00 0.505834 0.039463 0.007553
36 1 1 0.00 0.590489 0.111372 0.006340
37 1 1 0.00 0.673397 0.185290 0.005102
38 1 1 0.00 0.754810 0.260853 0.003847
39 1 1 0.00 0.835033 0.337679 0.002588
40 1 1 0.00 0.914426 0.415363 0.001335
41 1 1 0.00 0.993404 0.493469 0.000102
ITEM: TIMESTEP
1819894831
ITEM: NUMBER OF ATOMS
41
ITEM: BOX BOUNDS pp pp pp
-10.000000 10.000000 
-10.000000 10.000000 
-10.000000 10.000000 
ITEM: ATOMS id mol type q xu yu zu
1 1 1 0.00 -2.500000 -0.500000 0.000000
2 1 1 0.00 -2.420561 -0.515167 0.001667
3 1 1 0.00 -2.341029 -0.529842 0.003286
4 1 1 0.00 -2.261399 -0.543982 0.004853
5 1 1 0.00 -2.181666 -0.557537 0.006364
6 1 1 0.00 -2.101826 -0.570451 0.007816
7 1 1 0.00 -2.021874 -0.582660 0.009203
8 1 1 0.00 -1.941806 -0.594090 0.010519
9 1 1 0.00 -1.861617 -0.604656 0.011759
10 1 1 0.00 -1.781307 -0.614257 0.012915
11 1 1 0.00 -1.700874 -0.622780 0.013979
12 1 1 0.00 -1.620320 -0.630088 0.014944
13 1 1 0.00 -1.539653 -0.636025 0.015799