ITEM: TIMESTEP
1819894831
ITEM: NUMBER OF ATOMS
7
ITEM: BOX BOUNDS pp pp pp
-10.000000 10.000000 
-10.000000 10.000000 
-10.000000 10.000000 
ITEM: ATOMS id mol type q xu yu zu
1 1 1 0.00 -2.500000 -0.500000 0.000000
2 1 1 0.00 -2.000000 -1.000000 0.000000
3 1 1 0.00 -1.500000 -1.000000 0.000000
4 1 1 0.00 -1.000000 -0.500000 0.000000
5 1 1 0.00 -0.500000 0.000000 0.000000
6 1 1 0.00 0.500000 0.000000 0.000000
7 1 1 0.00 1.000000 0.500000 0.000000
ITEM: TIMESTEP
1819894831
ITEM: NUMBER OF ATOMS
7
ITEM: BOX BOUNDS pp pp pp
-10.000000 10.000000 
-10.000000 10.000000 
-10.000000 10.000000 
ITEM: ATOMS id mol type q xu yu zu
1 1 1 0.00 -2.500000 -0.500000 0.000000
2 1 1 0.00 -1.578711 -0.674319 0.019584
3 1 1 0.00 -1.187083 -0.666285 0.018599
4 1 1 0.00 -0.857487 -0.610535 0.018038
5 1 1 0.00 0.046773 -0.457585 0.016497
6 1 1 0.00 0.561020 0.067441 0.006688
7 1 1 0.00 1.000000 0.500000 0.000000
ITEM: TIMESTEP
1819894831
ITEM: NUMBER OF ATOMS
7
ITEM: BOX BOUNDS pp pp pp
-10.000000 10.000000 
-10.000000 10.000000 
-10.000000 10.000000 
ITEM: ATOMS id mol type q xu yu zu
1 1 1 0.00 -2.500000 -0.500000 0.000000
2 1 1 0.00 -1.578676 -0.674418 0.019586
3 1 1 0.00 -1.187118 -0.666149 0.018596
4 1 1 0.00 -0.858030 -0.610500 0.018035
5 1 1 0.00 0.046764 -0.457500 0.016495
6 1 1 0.00 0.561014 0.067378 0.006690
7 1 1 0.00 1.000000 0.500000 0.000000
ITEM: TIMESTEP
1819894831
ITEM: NUMBER OF ATOMS
7
ITEM: BOX BOUNDS pp pp pp
-10.000000 10.000000 
-10.000000 10.000000 
-10.000000 10.000000 
ITEM: ATOMS id mol type q xu yu zu
1 1 1 0.00 -2.500000 -0.500000 0.000000
2 1 1 0.00 -1.578621 -0.674571 0.019588
3 1 1 0.00 -1.187172 -0.665934 0.018591
4 1 1 0.00 -0.858886 -0.610445 0.018032
5 1 1 0.00 0.046751 -0.457368 0.016491
6 1 1 0.00 0.561005 0.067280 0.006693
7 1 1 0.00 1.000000 0.500000 0.000000
ITEM: TIMESTEP
1819894831
ITEM: NUMBER OF ATOMS
7
ITEM: BOX BOUNDS pp pp pp
-10.000000 10.000000 
-10.000000 10.000000 
-10.000000 10.000000 
ITEM: ATOMS id mol type q xu yu zu
1 1 1 0.00 -2.500000 -0.500000 0.000000
2 1 1 0.00 -1.578547 -0.674772 0.019591
3 1 1 0.00 -1.187245 -0.665650 0.018584
4 1 1 0.00 -0.860027 -0.610373 0.018028
5 1 1 0.00 0.046733 -0.457194 0.016486
6 1 1 0.00 0.560991 0.067155 0.006697
7 1 1 0.00 1.000000 0.500000 0.000000
ITEM: TIMESTEP
1819894831
ITEM: NUMBER OF ATOMS
7
ITEM: BOX BOUNDS pp pp pp
-10.000000 10.000000 
-10.000000 10.000000 
-10.000000 10.000000 
ITEM: ATOMS id mol type q xu yu zu
1 1 1 0.00 -2.500000 -0.500000 0.000000
2 1 1 0.00 -1.578457 -0.675012 0.019595
3 1 1 0.00 -1.187334 -0.665303 0.018576
4 1 1 0.00 -0.861425 -0.610286 0.018023
5 1 1 0.00 0.046710 -0.456984 0.016479
6 1 1 0.00 0.560974 0.067007 0.006702
7 1 1 0.00 1.000000 0.500000 0.000000
ITEM: TIMESTEP
1819894831
ITEM: NUMBER OF ATOMS
7
ITEM: BOX BOUNDS pp pp pp
-10.000000 10.000000 
-10.000000 10.000000 
-10.000000 10.000000 
ITEM: ATOMS id mol type q xu yu zu
1 1 1 0.00 -2.500000 -0.500000 0.000000
2 1 1 0.00 -1.578352 -0.675288 0.019599
3 1 1 0.00 -1.187438 -0.664900 0.018567
4 1 1 0.00 -0.863060 -0.610188 0.018016
5 1 1 0.00 0.046683 -0.456742 0.016472
6 1 1 0.00 0.560953 0.066839 0.006707
7 1 1 0.00 1.000000 0.500000 0.000000
ITEM: TIMESTEP
1819894831
ITEM: NUMBER OF ATOMS
7
ITEM: BOX BOUNDS pp pp pp
-10.000000 10.000000 
-10.000000 10.000000 
-10.000000 10.000000 
ITEM: ATOMS id mol type q xu yu zu
1 1 1 0.00 -2.500000 -0.500000 0.000000
2 1 1 0.00 -1.578233 -0.675592 0.019604
3 1 1 0.00 -1.187556 -0.664447 0.018557
4 1 1 0.00 -0.864916 -0.610079 0.018009
5 1 1 0.00 0.046651 -0.456472 0.016464
6 1 1 0.00 0.560928 0.066657 0.006713
7 1 1 0.00 1.000000 0.500000 0.000000
ITEM: TIMESTEP
1819894831
ITEM: NUMBER OF ATOMS
7
ITEM: BOX BOUNDS pp pp pp
-10.000000 10.000000 
-10.000000 10.000000 
-10.000000 10.000000 
ITEM: ATOMS id mol type q xu yu zu
1 1 1 0.00 -2.500000 -0.500000 0.000000
2 1 1 0.00 -1.578101 -0.675922 0.019608
3 1 1 0.00 -1.187686 -0.663949 0.018545
4 1 1 0.00 -0.866978 -0.609964 0.018002
5 1 1 0.00 0.046615 -0.456177 0.016454
6 1 1 0.00 0.560900 0.066463 0.006720
7 1 1 0.00 1.000000 0.500000 0.000000
ITEM: TIMESTEP
1819894831
ITEM: NUMBER OF ATOMS
7
ITEM: BOX BOUNDS pp pp pp
-10.000000 10.000000 
-10.000000 10.000000 
-10.000000 10.000000 
ITEM: ATOMS id mol type q xu yu zu
1 1 1 0.00 -2.500000 -0.500000 0.000000
2 1 1 0.00 -1.577957 -0.676273 0.019613
3 1 1 0.00 -1.187829 -0.663410 0.018532
4 1 1 0.00 -0.869237 -0.609843 0.017993
5 1 1 0.00 0.046573 -0.455861 0.016445
6 1 1 0.00 0.560870 0.066260 0.006727
7 1 1 0.00 1.000000 0.500000 0.000000
ITEM: TIMESTEP
1819894831
ITEM: NUMBER OF ATOMS
7
ITEM: BOX BOUNDS pp pp pp
-10.000000 10.000000 
-10.000000 10.000000 
-10.000000 10.000000 
ITEM: ATOMS id mol type q xu yu zu
1 1 1 0.00 -2.500000 -0.500000 0.000000
2 1 1 0.00 -1.577803 -0.676642 0.019619
3 1 1 0.00 -1.187983 -0.662833 0.018519
4 1 1 0.00 -0.871682 -0.609718 0.017985
5 1 1 0.00 0.046527 -0.455527 0.016434
6 1 1 0.00 0.560837 0.066051 0.006734
7 1 1 0.00 1.000000 0.500000 0.000000
ITEM: TIMESTEP
1819894831
ITEM: NUMBER OF ATOMS
7
ITEM: BOX BOUNDS pp pp pp
-10.000000 10.000000 
-10.000000 10.000000 
-10.000000 10.000000 
ITEM: ATOMS id mol type q xu yu zu
1 1 1 0.00 -2.500000 -0.500000 0.000000
2 1 1 0.00 -1.577637 -0.677027 0.019624
3 1 1 0.00 -1.188148 -0.662223 0.018504
4 1 1 0.00 -0.874309 -0.609592 0.017975
5 1 1 0.00 0.046475 -0.455176 0.016423
6 1 1 0.00 0.560802 0.065839 0.006741
7 1 1 0.00 1.000000 0.500000 0.000000
ITEM: TIMESTEP
1819894831
ITEM: NUMBER OF ATOMS
7
ITEM: BOX BOUNDS pp pp pp
-10.000000 10.000000 
-10.000000 10.000000 
-10.000000 10.000000 
ITEM: ATOMS id mol type q xu yu zu
1 1 1 0.00 -2.500000 -0.500000 0.000000
2 1 1 0.00 -1.577462 -0.677424 0.019629
3 1 1 0.00 -1.188323 -0.661582 0.018489
4 1 1 0.00 -0.877113 -0.609467 0.017965
5 1 1 0.00 0.046417 -0.454811 0.016412
6 1 1 0.00 0.560766 0.065624 0.006749
7 1 1 0.00 1.000000 0.500000 0.000000
ITEM: TIMESTEP
1819894831
ITEM: NUMBER OF ATOMS
7
ITEM: BOX BOUNDS pp pp pp
-10.000000 10.000000 
-10.000000 10.000000 
-10.000000 10.000000 
ITEM: ATOMS id mol type q xu yu zu
1 1 1 0.00 -2.500000 -0.500000 0.000000
2 1 1 0.00 -1.577277 -0.677831 0.019635
3 1 1 0.00 -1.188508 -0.660912 0.018473
4 1 1 0.00 -0.880092 -0.609343 0.017955
5 1 1 0.00 0.046353 -0.454433 0.016400
6 1 1 0.00 0.560728 0.065409 0.006756
7 1 1 0.00 1.000000 0.500000 0.000000
ITEM: TIMESTEP
1819894831
ITEM: NUMBER OF ATOMS
7
ITEM: BOX BOUNDS pp pp pp
-10.000000 10.000000 
-10.000000 10.000000 
-10.000000 10.000000 
ITEM: ATOMS id mol type q xu yu zu
1 1 1 0.00 -2.500000 -0.500000 0.000000
2 1 1 0.00 -1.577082 -0.678248 0.019640
3 1 1 0.00 -1.188703 -0.660216 0.018456
4 1 1 0.00 -0.883245 -0.609222 0.017944
5 1 1 0.00 0.046282 -0.454045 0.016388
6 1 1 0.00 0.560690 0.065195 0.006764
7 1 1 0.00 1.000000 0.500000 0.000000
ITEM: TIMESTEP
1819894831
ITEM: NUMBER OF ATOMS
7
ITEM: BOX BOUNDS pp pp pp
-10.000000 10.000000 
-10.000000 10.000000 
-10.000000 10.000000 
ITEM: ATOMS id mol type q xu yu zu
1 1 1 0.00 -2.500000 -0.500000 0.000000
2 1 1 0.00 -1.576878 -0.678672 0.019646
3 1 1 0.00 -1.188908 -0.659495 0.018438
4 1 1 0.00 -0.886574 -0.609107 0.017933
5 1 1 0.00 0.046205 -0.453647 0.016375
6 1 1 0.00 0.560652 0.064984 0.006772
7 1 1 0.00 1.000000 0.500000 0.000000
ITEM: TIMESTEP
1819894831
ITEM: NUMBER OF ATOMS
7
ITEM: BOX BOUNDS pp pp pp
-10.000000 10.000000 
-10.000000 10.000000 
-10.000000 10.000000 
ITEM: ATOMS id mol type q xu yu zu
1 1 1 0.00 -2.500000 -0.500000 0.000000
2 1 1 0.00 -1.576666 -0.679103 0.019651
3 1 1 0.00 -1.189123 -0.658751 0.018420
4 1 1 0.00 -0.890082 -0.608998 0.017922
5 1 1 0.00 0.046120 -0.453240 0.016362
6 1 1 0.00 0.560614 0.064777 0.006780
7 1 1 0.00 1.000000 0.500000 0.000000
ITEM: TIMESTEP
1819894831
ITEM: NUMBER OF ATOMS
7
ITEM: BOX BOUNDS pp pp pp
-10.000000 10.000000 
-10.000000 10.000000 
-10.000000 10.000000 
ITEM: ATOMS id mol type q xu yu zu
1 1 1 0.00 -2.500000 -0.500000 0.000000
2 1 1 0.00 -1.576444 -0.679539 0.019656
3 1 1 0.00 -1.189347 -0.657984 0.018401
4 1 1 0.00 -0.893773 -0.608898 0.017910
5 1 1 0.00 0.046026 -0.452826 0.016348
6 1 1 0.00 0.560577 0.064575 0.006788
7 1 1 0.00 1.000000 0.500000 0.000000
ITEM: TIMESTEP
1819894831
ITEM: NUMBER OF ATOMS
7
ITEM: BOX BOUNDS pp pp pp
-10.000000 10.000000 
-10.000000 10.000000 
-10.000000 10.000000 
ITEM: ATOMS id mol type q xu yu zu
1 1 1 0.00 -2.500000 -0.500000 0.000000
2 1 1 0.00 -1.576214 -0.679980 0.019662
3 1 1 0.00 -1.189580 -0.657197 0.018382
4 1 1 0.00 -0.897654 -0.608809 0.017898
5 1 1 0.00 0.045925 -0.452406 0.016335
6 1 1 0.00 0.560541 0.064378 0.006795
7 1 1 0.00 1.000000 0.500000 0.000000
ITEM: TIMESTEP
1819894831
ITEM: NUMBER OF ATOMS
7
ITEM: BOX BOUNDS pp pp pp
-10.000000 10.000000 
-10.000000 10.000000 
-10.000000 10.000000 
ITEM: ATOMS id mol type q xu yu zu
1 1 1 0.00 -2.500000 -0.500000 0.000000
2 1 1 0.00 -1.575975 -0.680425 0.019667
3 1 1 0.00 -1.189824 -0.656390 0.018361
4 1 1 0.00 -0.901734 -0.608731 0.017886
5 1 1 0.00 0.045814 -0.451980 0.016321
6 1 1 0.00 0.560507 0.064188 0.006803
7 1 1 0.00 1.000000 0.500000 0.000000
ITEM: TIMESTEP
1819894831
ITEM: NUMBER OF ATOMS
7
ITEM: BOX BOUNDS pp pp pp
-10.000000 10.000000 
-10.000000 10.000000 
-10.000000 10.000000 
ITEM: ATOMS id mol type q xu yu zu
1 1 1 0.00 -2.500000 -0.500000 0.000000
2 1 1 0.00 -1.575727 -0.680873 0.019673
3 1 1 0.00 -1.190077 -0.655562 0.018341
4 1 1 0.00 -0.906023 -0.608668 0.017873
5 1 1 0.00 0.045694 -0.451548 0.016306
6 1 1 0.00 0.560475 0.064005 0.006811
7 1 1 0.00 1.000000 0.500000 0.000000
ITEM: TIMESTEP
1819894831
ITEM: NUMBER OF ATOMS
7
ITEM: BOX BOUNDS pp pp pp
-10.000000 10.000000 
-10.000000 10.000000 
-10.000000 10.000000 
ITEM: ATOMS id mol type q xu yu zu
1 1 1 0.00 -2.500000 -0.500000 0.000000
2 1 1 0.00 -1.575469 -0.681325 0.019678
3 1 1 0.00 -1.190340 -0.654716 0.018319
4 1 1 0.00 -0.910535 -0.608621 0.017860
5 1 1 0.00 0.045564 -0.451112 0.016292
6 1 1 0.00 0.560446 0.063830 0.006818
7 1 1 0.00 1.000000 0.500000 0.000000
ITEM: TIMESTEP
1819894831
ITEM: NUMBER OF ATOMS
7
ITEM: BOX BOUNDS pp pp pp
-10.000000 10.000000 
-10.000000 10.000000 
-10.000000 10.000000 
ITEM: ATOMS id mol type q xu yu zu
1 1 1 0.00 -2.500000 -0.500000 0.000000
2 1 1 0.00 -1.575203 -0.681780 0.019684
3 1 1 0.00 -1.190614 -0.653851 0.018297
4 1 1 0.00 -0.915285 -0.608593 0.017847
5 1 1 0.00 0.045423 -0.450672 0.016277
6 1 1 0.00 0.560420 0.063664 0.006825
7 1 1 0.00 1.000000 0.500000 0.000000
ITEM: TIMESTEP
1819894831
ITEM: NUMBER OF ATOMS
7
ITEM: BOX BOUNDS pp pp pp
-10.000000 10.000000 
-10.000000 10.000000 
-10.000000 10.000000 
ITEM: ATOMS id mol type q xu yu zu
1 1 1 0.00 -2.500000 -0.500000 0.000000
2 1 1 0.00 -1.574928 -0.682238 0.019689
3 1 1 0.00 -1.190898 -0.652967 0.018274
4 1 1 0.00 -0.920293 -0.608586 0.017834
5 1 1 0.00 0.045271 -0.450229 0.016263
6 1 1 0.00 0.560398 0.063507 0.006832
7 1 1 0.00 1.000000 0.500000 0.000000
ITEM: TIMESTEP
1819894831
ITEM: NUMBER OF ATOMS
7
ITEM: BOX BOUNDS pp pp pp
-10.000000 10.000000 
-10.000000 10.000000 
-10.000000 10.000000 
ITEM: ATOMS id mol type q xu yu zu
1 1 1 0.00 -2.500000 -0.500000 0.000000
2 1 1 0.00 -1.574642 -0.682700 0.019695
3 1 1 0.00 -1.191192 -0.652064 0.018251
4 1 1 0.00 -0.925581 -0.608604 0.017821
5 1 1 0.00 0.045107 -0.449781 0.016247
6 1 1 0.00 0.560380 0.063359 0.006839
7 1 1 0.00 1.000000 0.500000 0.000000
ITEM: TIMESTEP
1819894831
ITEM: NUMBER OF ATOMS
7
ITEM: BOX BOUNDS pp pp pp
-10.000000 10.000000 
-10.000000 10.000000 
-10.000000 10.000000 
ITEM: ATOMS id mol type q xu yu zu
1 1 1 0.00 -2.500000 -0.500000 0.000000
2 1 1 0.00 -1.574347 -0.683165 0.019700
3 1 1 0.00 -1.191499 -0.651141 0.018227
4 1 1 0.00 -0.931180 -0.608651 0.017807
5 1 1 0.00 0.044930 -0.449330 0.016232
6 1 1 0.00 0.560367 0.063221 0.006846
7 1 1 0.00 1.000000 0.500000 0.000000
ITEM: TIMESTEP
1819894831
ITEM: NUMBER OF ATOMS
7
ITEM: BOX BOUNDS pp pp pp
-10.000000 10.000000 
-10.000000 10.000000 
-10.000000 10.000000 
ITEM: ATOMS id mol type q xu yu zu
1 1 1 0.00 -2.500000 -0.500000 0.000000
2 1 1 0.00 -1.574042 -0.683635 0.019706
3 1 1 0.00 -1.191816 -0.650198 0.018203
4 1 1 0.00 -0.937121 -0.608732 0.017794
5 1 1 0.00 0.044740 -0.448876 0.016217
6 1 1 0.00 0.560360 0.063094 0.006853
7 1 1 0.00 1.000000 0.500000 0.000000
ITEM: TIMESTEP
1819894831
ITEM: NUMBER OF ATOMS
7
ITEM: BOX BOUNDS pp pp pp
-10.000000 10.000000 
-10.000000 10.000000 
-10.000000 10.000000 
ITEM: ATOMS id mol type q xu yu zu
1 1 1 0.00 -2.500000 -0.500000 0.000000
2 1 1 0.00 -1.573726 -0.684110 0.019711
3 1 1 0.00 -1.192147 -0.649235 0.018177
4 1 1 0.00 -0.943448 -0.608850 0.017780
5 1 1 0.00 0.044536 -0.448419 0.016201
6 1 1 0.00 0.560358 0.062977 0.006859
7 1 1 0.00 1.000000 0.500000 0.000000
ITEM: TIMESTEP
1819894831
ITEM: NUMBER OF ATOMS
7
ITEM: BOX BOUNDS pp pp pp
-10.000000 10.000000 
-10.000000 10.000000 
-10.000000 10.000000 
ITEM: ATOMS id mol type q xu yu zu
1 1 1 0.00 -2.500000 -0.500000 0.000000
2 1 1 0.00 -1.573399 -0.684592 0.019717
3 1 1 0.00 -1.192490 -0.648249 0.018151
4 1 1 0.00 -0.950212 -0.609014 0.017766
5 1 1 0.00 0.044316 -0.447959 0.016185
6 1 1 0.00 0.560363 0.062871 0.006865
7 1 1 0.00 1.000000 0.500000 0.000000
ITEM: TIMESTEP
1819894831
ITEM: NUMBER OF ATOMS
7
ITEM: BOX BOUNDS pp pp pp
-10.000000 10.000000 
-10.000000 10.000000 
-10.000000 10.000000 
ITEM: ATOMS id mol type q xu yu zu
1 1 1 0.00 -2.500000 -0.500000 0.000000
2 1 1 0.00 -1.573060 -0.685080 0.019723
3 1 1 0.00 -1.192847 -0.647240 0.018125
4 1 1 0.00 -0.957479 -0.609231 0.017753
5 1 1 0.00 0.044081 -0.447494 0.016169
6 1 1 0.00 0.560376 0.062776 0.006871
7 1 1 0.00 1.000000 0.500000 0.000000
ITEM: TIMESTEP
1819894831
ITEM: NUMBER OF ATOMS
7
ITEM: BOX BOUNDS pp pp pp
-10.000000 10.000000 
-10.000000 10.000000 
-10.000000 10.000000 
ITEM: ATOMS id mol type q xu yu zu
1 1 1 0.00 -2.500000 -0.500000 0.000000
2 1 1 0.00 -1.572708 -0.685577 0.019729
3 1 1 0.00 -1.193219 -0.646205 0.018097
4 1 1 0.00 -0.965331 -0.609513 0.017739
5 1 1 0.00 0.043828 -0.447027 0.016153
6 1 1 0.00 0.560396 0.062692 0.006877
7 1 1 0.00 1.000000 0.500000 0.000000
ITEM: TIMESTEP
1819894831
ITEM: NUMBER OF ATOMS
7
ITEM: BOX BOUNDS pp pp pp
-10.000000 10.000000 
-10.000000 10.000000 
-10.000000 10.000000 
ITEM: ATOMS id mol type q xu yu zu
1 1 1 0.00 -2.500000 -0.500000 0.000000
2 1 1 0.00 -1.572344 -0.686085 0.019735
3 1 1 0.00 -1.193606 -0.645143 0.018069
4 1 1 0.00 -0.973877 -0.609872 0.017726
5 1 1 0.00 0.043557 -0.446554 0.016137
6 1 1 0.00 0.560426 0.062621 0.006883
7 1 1 0.00 1.000000 0.500000 0.000000
ITEM: TIMESTEP
1819894831
ITEM: NUMBER OF ATOMS
7
ITEM: BOX BOUNDS pp pp pp
-10.000000 10.000000 
-10.000000 10.000000 
-10.000000 10.000000 
ITEM: ATOMS id mol type q xu yu zu
1 1 1 0.00 -2.500000 -0.500000 0.000000
2 1 1 0.00 -1.571965 -0.686606 0.019741
3 1 1 0.00 -1.194010 -0.644049 0.018040
4 1 1 0.00 -0.983263 -0.610328 0.017713
5 1 1 0.00 0.043266 -0.446077 0.016120
6 1 1 0.00 0.560467 0.062560 0.006888
7 1 1 0.00 1.000000 0.500000 0.000000
ITEM: TIMESTEP
1819894831
ITEM: NUMBER OF ATOMS
7
ITEM: BOX BOUNDS pp pp pp
-10.000000 10.000000 
-10.000000 10.000000 
-10.000000 10.000000 
ITEM: ATOMS id mol type q xu yu zu
1 1 1 0.00 -2.500000 -0.500000 0.000000
2 1 1 0.00 -1.571570 -0.687144 0.019748
3 1 1 0.00 -1.194434 -0.642920 0.018011
4 1 1 0.00 -0.993691 -0.610907 0.017701
5 1 1 0.00 0.042954 -0.445593 0.016103
6 1 1 0.00 0.560518 0.062512 0.006893
7 1 1 0.00 1.000000 0.500000 0.000000
ITEM: TIMESTEP
1819894831
ITEM: NUMBER OF ATOMS
7
ITEM: BOX BOUNDS pp pp pp
-10.000000 10.000000 
-10.000000 10.000000 
-10.000000 10.000000 
ITEM: ATOMS id mol type q xu yu zu
1 1 1 0.00 -2.500000 -0.500000 0.000000
2 1 1 0.00 -1.571158 -0.687702 0.019755
3 1 1 0.00 -1.194877 -0.641749 0.017980
4 1 1 0.00 -1.005450 -0.611648 0.017690
5 1 1 0.00 0.042618 -0.445102 0.016086
6 1 1 0.00 0.560583 0.062475 0.006898
7 1 1 0.00 1.000000 0.500000 0.000000
ITEM: TIMESTEP
1819894831
ITEM: NUMBER OF ATOMS
7
ITEM: BOX BOUNDS pp pp pp
-10.000000 10.000000 
-10.000000 10.000000 
-10.000000 10.000000 
ITEM: ATOMS id mol type q xu yu zu
1 1 1 0.00 -2.500000 -0.500000 0.000000
2 1 1 0.00 -1.570728 -0.688287 0.019762
3 1 1 0.00 -1.195344 -0.640529 0.017948
4 1 1 0.00 -1.018987 -0.612609 0.017680
5 1 1 0.00 0.042256 -0.444600 0.016068
6 1 1 0.00 0.560663 0.062448 0.006903
7 1 1 0.00 1.000000 0.500000 0.000000
ITEM: TIMESTEP
1819894831
ITEM: NUMBER OF ATOMS
7
ITEM: BOX BOUNDS pp pp pp
-10.000000 10.000000 
-10.000000 10.000000 
-10.000000 10.000000 
ITEM: ATOMS id mol type q xu yu zu
1 1 1 0.00 -2.500000 -0.500000 0.000000
2 1 1 0.00 -1.570275 -0.688908 0.019770
3 1 1 0.00 -1.195839 -0.639247 0.017916
4 1 1 0.00 -1.035035 -0.613891 0.017673
5 1 1 0.00 0.041865 -0.444085 0.016050
6 1 1 0.00 0.560760 0.062431 0.006907
7 1 1 0.00 1.000000 0.500000 0.000000
ITEM: TIMESTEP
1819894831
ITEM: NUMBER OF ATOMS
7
ITEM: BOX BOUNDS pp pp pp
-10.000000 10.000000 
-10.000000 10.000000 
-10.000000 10.000000 
ITEM: ATOMS id mol type q xu yu zu
1 1 1 0.00 -2.500000 -0.500000 0.000000
2 1 1 0.00 -1.569797 -0.689580 0.019778
3 1 1 0.00 -1.196365 -0.637883 0.017882
4 1 1 0.00 -1.054948 -0.615680 0.017671
5 1 1 0.00 0.041440 -0.443549 0.016032
6 1 1 0.00 0.560877 0.062421 0.006912
7 1 1 0.00 1.000000 0.500000 0.000000
ITEM: TIMESTEP
1819894831
ITEM: NUMBER OF ATOMS
7
ITEM: BOX BOUNDS pp pp pp
-10.000000 10.000000 
-10.000000 10.000000 
-10.000000 10.000000 
ITEM: ATOMS id mol type q xu yu zu
1 1 1 0.00 -2.500000 -0.500000 0.000000
2 1 1 0.00 -1.569286 -0.690329 0.019785
3 1 1 0.00 -1.196933 -0.636398 0.017848
4 1 1 0.00 -1.081652 -0.618386 0.017677
5 1 1 0.00 0.040974 -0.442981 0.016014
6 1 1 0.00 0.561021 0.062410 0.006916
7 1 1 0.00 1.000000 0.500000 0.000000
